ITEM: TIMESTEP
23000000
ITEM: NUMBER OF ATOMS
100000
ITEM: BOX BOUNDS pp pp pp
-9.2960849036197040e+00 2.7296084923066719e+01
-9.2960849036197040e+00 2.7296084923066719e+01
-3.7479678306292161e+00 2.7370747827046053e+01
ITEM: ATOMS id type x y z ix iy iz
83740 1 -4.66839 -9.12462 -3.68447 1 0 1
83741 1 -4.19315 -9.25638 -3.66576 1 0 1
65342 1 -1.13769 -8.90469 -3.34686 0 1 1
43111 1 -0.237745 -9.11918 -3.62784 1 1 1
95077 1 1.70117 -8.63206 -3.27687 0 0 1
53255 1 3.45111 -8.721 -3.70165 1 0 1
53256 1 3.87446 -8.6831 -3.43929 1 0 1
53257 1 4.26461 -8.65843 -3.15488 1 0 1
52822 1 5.31108 -9.04328 -3.21943 1 0 1
77356 1 6.31934 -8.90538 -3.54003 0 1 1
44476 1 6.98952 -8.6367 -3.08625 0 1 1
65791 1 7.83504 -8.90313 -3.29509 0 1 1
77398 1 8.71787 -9.10817 -3.55189 0 1 1
77397 1 8.78257 -8.64181 -3.70469 0 1 1
65363 1 -8.96629 -8.07676 -3.12358 0 1 1
65362 1 -8.46648 -8.00737 -3.12747 0 1 1
65361 1 -7.98392 -7.94844 -3.12269 0 1 1
43126 1 -6.49395 -8.5987 -3.07551 1 1 1
43125 1 -5.99483 -8.5208 -3.09766 1 1 1
43124 1 -5.51364 -8.44964 -3.10077 1 1 1
43123 1 -5.02584 -8.41544 -3.07372 1 1 1
43122 1 -4.53252 -8.3802 -3.08048 1 1 1
43121 1 -4.0501 -8.37679 -3.20706 1 1 1
43120 1 -3.57736 -8.41771 -3.36979 1 1 1
43119 1 -3.1173 -8.55479 -3.5716 1 1 1
76833 1 -1.97784 -8.39504 -3.21696 0 0 1
76832 1 -1.83321 -8.20073 -3.65737 0 0 1
65343 1 -1.02896 -8.5024 -3.07906 0 1 1
65344 1 -0.720301 -8.10329 -3.21095 0 1 1
9613 1 0.264122 -8.22922 -3.60105 0 0 1
9612 1 0.316035 -8.46826 -3.14662 0 0 1
95076 1 1.33743 -8.46917 -3.51129 0 0 1
95078 1 2.12746 -8.46416 -3.29705 0 0 1
95079 1 2.57918 -8.24129 -3.31492 0 0 1
95080 1 3.00861 -7.99958 -3.25569 0 0 1
53258 1 4.40111 -8.23612 -3.35963 1 0 1
52821 1 5.40876 -8.59767 -3.41452 1 0 1
52820 1 5.43777 -8.13944 -3.59242 1 0 1
77357 1 6.31242 -8.43378 -3.71197 0 1 1
44475 1 7.05222 -8.18251 -3.26815 0 1 1
65792 1 7.90068 -8.44626 -3.45416 0 1 1
65793 1 8.01914 -7.99356 -3.63324 0 1 1
65360 1 -7.48284 -7.8365 -3.09147 0 1 1
65359 1 -6.98542 -7.73692 -3.11485 0 1 1
65358 1 -6.48607 -7.66442 -3.15093 0 1 1
65357 1 -5.98029 -7.59012 -3.19896 0 1 1
65356 1 -5.49272 -7.53521 -3.22463 0 1 1
65355 1 -5.00657 -7.4321 -3.22472 0 1 1
65354 1 -4.51688 -7.35857 -3.2304 0 1 1
65353 1 -3.9877 -7.29356 -3.18407 0 1 1
65352 1 -3.46624 -7.31747 -3.17641 0 1 1
65351 1 -2.94357 -7.33033 -3.25647 0 1 1
65350 1 -2.46545 -7.30157 -3.33766 0 1 1
65349 1 -1.96963 -7.27659 -3.46847 0 1 1
65348 1 -1.47178 -7.26489 -3.52685 0 1 1
65347 1 -0.98019 -7.28961 -3.62685 0 1 1
65346 1 -0.487386 -7.35444 -3.66946 0 1 1
65345 1 -0.434242 -7.6969 -3.26562 0 1 1
46459 1 0.711726 -7.32442 -3.24885 0 1 1
46460 1 1.13435 -7.57197 -3.37859 0 1 1
95081 1 3.43264 -7.77409 -3.22042 0 0 1
95082 1 3.54671 -7.30216 -3.41783 0 0 1
53259 1 4.51447 -7.75997 -3.50136 1 0 1
53260 1 4.53858 -7.30224 -3.61556 1 0 1
94084 1 6.17123 -7.49592 -3.12004 0 0 1
44474 1 7.08039 -7.68343 -3.48801 0 1 1
92602 1 -9.26745 -7.11633 -3.2558 1 0 1
92603 1 -8.77071 -7.07648 -3.20516 1 0 1
92604 1 -8.28649 -7.0369 -3.21654 1 0 1
92605 1 -7.79582 -7.00331 -3.24471 1 0 1
92606 1 -7.32186 -6.89581 -3.25029 1 0 1
92607 1 -6.86746 -6.79688 -3.23835 1 0 1
92608 1 -6.36751 -6.72997 -3.27353 1 0 1
92609 1 -5.87946 -6.67523 -3.29006 1 0 1
92610 1 -5.38358 -6.62567 -3.31962 1 0 1
46458 1 0.326101 -7.10371 -3.13339 0 1 1
13620 1 1.62027 -6.61763 -3.08374 0 1 1
69565 1 2.42971 -7.17813 -3.55874 1 0 1
69564 1 2.61303 -6.86486 -3.25249 1 0 1
95083 1 3.6424 -6.82647 -3.57161 0 0 1
94083 1 6.20145 -7.01543 -3.3441 0 0 1
44473 1 7.06428 -7.21741 -3.67274 0 1 1
77136 1 7.68351 -6.75759 -3.15214 0 1 1
77219 1 8.70708 -7.0779 -3.27247 0 1 1
77220 1 8.69396 -6.60843 -3.43759 0 1 1
92583 1 -8.93144 -6.17994 -3.42182 1 0 1
92582 1 -8.43917 -6.11328 -3.40645 1 0 1
92581 1 -7.96769 -5.98621 -3.48684 1 0 1
92611 1 -4.8719 -6.53992 -3.34521 1 0 1
92612 1 -4.39893 -6.43427 -3.406 1 0 1
92613 1 -3.92467 -6.29765 -3.41764 1 0 1
92614 1 -3.4338 -6.21269 -3.44208 1 0 1
92615 1 -2.96136 -6.16139 -3.42251 1 0 1
92617 1 -1.98928 -6.26207 -3.37239 1 0 1
92616 1 -2.48261 -6.1827 -3.34825 1 0 1
92618 1 -1.49859 -6.328 -3.42748 1 0 1
92619 1 -1.02572 -6.3577 -3.50197 1 0 1
92620 1 -0.556312 -6.46514 -3.6153 1 0 1
92564 1 0.126127 -6.13913 -3.10901 1 0 1
92563 1 0.591284 -5.98495 -3.25185 1 0 1
13621 1 1.8468 -6.17828 -3.10407 0 1 1
13622 1 1.93589 -5.92516 -3.51882 0 1 1
69563 1 2.81964 -6.41343 -3.38399 1 0 1
69562 1 2.86232 -5.95803 -3.60811 1 0 1
95084 1 3.67573 -6.3584 -3.74747 0 0 1
24817 1 5.3223 -6.56929 -3.19064 0 0 1
24818 1 5.34532 -6.08796 -3.2808 0 0 1
94082 1 6.23206 -6.56356 -3.52341 0 0 1
94081 1 6.26843 -6.09759 -3.61521 0 0 1
77135 1 7.7011 -6.26999 -3.27578 0 1 1
77221 1 8.69744 -6.12263 -3.61188 0 1 1
92580 1 -7.48891 -5.86299 -3.49546 1 0 1
92579 1 -7.01006 -5.81083 -3.47911 1 0 1
92578 1 -6.49141 -5.73807 -3.50556 1 0 1
92577 1 -6.03206 -5.6862 -3.46434 1 0 1
92576 1 -5.56062 -5.65124 -3.50268 1 0 1
92575 1 -5.06601 -5.58789 -3.46874 1 0 1
92574 1 -4.5685 -5.4996 -3.46847 1 0 1
92573 1 -4.08992 -5.41049 -3.47506 1 0 1
92572 1 -3.58787 -5.25572 -3.49668 1 0 1
92569 1 -2.08499 -5.26026 -3.38917 1 0 1
92568 1 -1.60088 -5.36869 -3.3392 1 0 1
92567 1 -1.14726 -5.53964 -3.26804 1 0 1
92562 1 1.03197 -5.86612 -3.36641 1 0 1
92561 1 1.16797 -5.56536 -3.74389 1 0 1
53211 1 4.33847 -5.80193 -3.15653 1 0 1
53212 1 4.38242 -5.32138 -3.28703 1 0 1
24819 1 5.38607 -5.61401 -3.45178 0 0 1
94080 1 6.2997 -5.61738 -3.72626 0 0 1
13283 1 6.98322 -5.34612 -3.20407 0 1 1
77134 1 7.76449 -5.79385 -3.43486 0 1 1
77133 1 7.8836 -5.33446 -3.582 0 1 1
65069 1 -8.99973 -5.20567 -3.58801 0 1 1
65068 1 -8.52853 -5.10158 -3.58004 0 1 1
65067 1 -8.02797 -5.04113 -3.52158 0 1 1
65066 1 -7.52328 -4.9573 -3.48731 0 1 1
65065 1 -7.01096 -4.8706 -3.50072 0 1 1
65064 1 -6.51728 -4.75021 -3.53002 0 1 1
65063 1 -6.02043 -4.65856 -3.56213 0 1 1
65062 1 -5.52024 -4.63913 -3.59704 0 1 1
92570 1 -2.57805 -5.18101 -3.41868 1 0 1
92571 1 -3.07973 -5.19624 -3.44709 1 0 1
1232 1 -0.735738 -4.88767 -3.74255 0 0 0
1231 1 -0.437219 -4.99984 -3.3842 0 0 0
1356 1 0.818045 -4.79246 -3.32567 0 0 0
1355 1 0.478549 -5.05633 -3.57125 0 0 0
1357 1 1.31181 -4.89156 -3.32258 0 0 0
1358 1 1.82513 -4.97672 -3.32752 0 0 0
1359 1 2.30481 -5.08844 -3.30115 0 0 0
53226 1 3.40092 -4.92476 -3.09287 1 0 1
53213 1 4.4462 -4.85951 -3.41221 1 0 1
24820 1 5.38409 -5.13246 -3.63125 0 0 1
13284 1 6.95805 -4.87864 -3.3409 0 1 1
77132 1 7.9225 -4.88019 -3.70196 0 1 1
77168 1 8.63366 -4.83186 -3.09519 0 1 1
92501 1 -8.97042 -4.25772 -3.62667 1 0 1
92499 1 -7.99272 -4.09158 -3.55398 1 0 1
92500 1 -8.49233 -4.14949 -3.6035 1 0 1
92498 1 -7.51098 -4.02847 -3.61613 1 0 1
92497 1 -7.04975 -3.88785 -3.66912 1 0 1
65061 1 -5.0222 -4.5404 -3.6233 0 1 1
65059 1 -4.04057 -4.45781 -3.58137 0 1 1
65060 1 -4.51859 -4.49152 -3.60899 0 1 1
65058 1 -3.55577 -4.42743 -3.58958 0 1 1
65056 1 -2.59674 -4.30722 -3.49145 0 1 1
65057 1 -3.08238 -4.34471 -3.56114 0 1 1
65055 1 -2.13385 -4.25307 -3.40886 0 1 1
65053 1 -1.33491 -4.00235 -3.61121 0 1 1
65054 1 -1.79181 -3.90442 -3.53765 0 1 1
65052 1 -0.853954 -4.05705 -3.72266 0 1 1
65046 1 2.14203 -4.21347 -3.67064 0 1 1
53225 1 3.36399 -4.45651 -3.27769 1 0 1
53224 1 3.37151 -4.00111 -3.48078 1 0 1
53214 1 4.51092 -4.38449 -3.55737 1 0 1
53215 1 4.54186 -3.89499 -3.67568 1 0 1
52857 1 6.11445 -4.37309 -3.13425 1 0 1
52856 1 6.16232 -3.93277 -3.3452 1 0 1
13285 1 6.96737 -4.39465 -3.46916 0 1 1
13286 1 7.02125 -3.93216 -3.60191 0 1 1
85101 1 7.7576 -3.89579 -3.12609 1 1 1
77169 1 8.6056 -4.33961 -3.23377 0 1 1
92496 1 -6.54799 -3.82843 -3.68881 1 0 1
92495 1 -6.04814 -3.71837 -3.71699 1 0 1
92494 1 -5.54127 -3.66808 -3.73941 1 0 1
92493 1 -5.06077 -3.62434 -3.69095 1 0 1
92492 1 -4.60291 -3.57533 -3.65795 1 0 1
92491 1 -4.10726 -3.43269 -3.67401 1 0 1
92490 1 -3.634 -3.25124 -3.65706 1 0 1
13164 1 -0.691251 -3.34515 -3.19417 0 1 1
31485 1 0.740936 -3.61948 -3.09883 1 1 0
31486 1 1.23451 -3.49 -3.17021 1 1 0
31487 1 1.71859 -3.37531 -3.32012 1 1 0
65045 1 2.45606 -3.81399 -3.60992 0 1 1
53223 1 3.38195 -3.57082 -3.72611 1 0 1
9180 1 5.35978 -3.59915 -3.08943 0 0 1
52855 1 6.20633 -3.47329 -3.5351 1 0 1
13287 1 7.11078 -3.46249 -3.74224 0 1 1
85102 1 7.80108 -3.41499 -3.23741 1 1 1
77170 1 8.63434 -3.87122 -3.34473 0 1 1
77171 1 8.6676 -3.39129 -3.41657 0 1 1
13219 1 -7.30368 -3.00866 -3.72639 0 1 1
13220 1 -6.82143 -2.9302 -3.65292 0 1 1
13221 1 -6.34025 -2.84835 -3.72123 0 1 1
13222 1 -5.84419 -2.78864 -3.71185 0 1 1
13224 1 -4.85752 -2.60869 -3.74537 0 1 1
92489 1 -3.13794 -3.17379 -3.65811 1 0 1
92488 1 -2.63777 -3.11655 -3.59842 1 0 1
92487 1 -2.1063 -3.06224 -3.57546 1 0 1
92485 1 -1.30296 -2.62044 -3.48362 1 0 1
92486 1 -1.61395 -2.98366 -3.60019 1 0 1
13163 1 -0.314127 -3.11478 -3.44831 0 1 1
165 1 1.04553 -2.83746 -3.67826 1 1 1
164 1 1.31771 -2.63326 -3.33728 1 1 1
53306 1 2.99556 -2.97727 -3.11411 1 0 1
53305 1 2.9737 -2.5736 -3.39801 1 0 1
15633 1 4.43556 -2.63848 -3.20577 1 0 0
52854 1 6.19475 -3.00319 -3.6872 1 0 1
52849 1 6.84333 -2.58271 -3.18705 1 0 1
85103 1 7.8345 -2.90743 -3.3536 1 1 1
77172 1 8.72609 -2.89293 -3.5665 0 1 1
13228 1 -2.90257 -2.22558 -3.71605 0 1 1
13230 1 -2.27597 -1.87185 -3.32421 0 1 1
92484 1 -1.40423 -2.16956 -3.29149 1 0 1
54468 1 -0.564515 -2.12183 -3.58204 1 0 1
4210 1 0.239574 -2.00952 -3.66715 1 0 1
4209 1 0.308098 -2.3307 -3.29629 1 0 1
53304 1 2.84125 -2.16128 -3.61655 1 0 1
15634 1 4.09532 -2.40393 -3.47917 1 0 0
24827 1 5.13546 -2.10601 -3.57117 0 0 1
9183 1 5.80872 -2.29739 -3.07632 0 0 1
52850 1 6.83863 -2.10592 -3.32599 1 0 1
85104 1 7.83525 -2.43428 -3.48839 1 1 1
85105 1 7.80994 -1.97138 -3.69016 1 1 1
77173 1 8.79973 -2.43494 -3.71734 0 1 1
92432 1 -8.92687 -1.8191 -3.16282 1 0 1
92431 1 -8.46266 -1.7297 -3.15628 1 0 1
92430 1 -7.97249 -1.65207 -3.1335 1 0 1
92429 1 -7.49163 -1.51141 -3.11159 1 0 1
92428 1 -7.00298 -1.47295 -3.11244 1 0 1
92034 1 -5.69472 -1.74853 -3.74755 1 0 1
84937 1 -3.08611 -1.34567 -3.14167 1 1 1
92483 1 -1.43722 -1.77513 -3.59583 1 0 1
92482 1 -1.55779 -1.2996 -3.46374 1 0 1
54469 1 -0.620808 -1.66888 -3.33115 1 0 1
54470 1 -0.625727 -1.17837 -3.15037 1 0 1
84541 1 1.29682 -1.63601 -3.29812 1 1 1
84540 1 1.03099 -1.27904 -3.52615 1 1 1
84542 1 1.71633 -1.37095 -3.26288 1 1 1
24830 1 4.07154 -1.34864 -3.51164 0 0 1
24829 1 4.51149 -1.54934 -3.39677 0 0 1
24828 1 4.94076 -1.73048 -3.28211 0 0 1
9184 1 5.84952 -1.83256 -3.22372 0 0 1
77175 1 8.71027 -1.68844 -3.5285 0 1 1
86456 1 -9.07947 -0.703663 -3.21628 0 1 0
86455 1 -8.58412 -0.71687 -3.20463 0 1 0
86454 1 -8.07862 -0.704852 -3.20756 0 1 0
86453 1 -7.61362 -0.687338 -3.23893 0 1 0
86452 1 -7.12701 -0.655003 -3.21476 0 1 0
86451 1 -6.65088 -0.523563 -3.22076 0 1 0
84519 1 -4.07863 -0.599242 -3.65236 1 1 1
84520 1 -3.84563 -0.670569 -3.24009 1 1 1
84936 1 -2.91595 -0.891666 -3.27411 1 1 1
92481 1 -1.71836 -0.832173 -3.41849 1 0 1
54471 1 -0.536456 -0.917984 -3.58085 1 0 1
84539 1 0.802487 -0.861437 -3.74731 1 1 1
84543 1 2.14514 -1.10107 -3.21019 1 1 1
24833 1 2.80678 -0.593074 -3.45055 0 0 1
24832 1 3.21275 -0.838018 -3.56164 0 0 1
24831 1 3.64157 -1.103 -3.54858 0 0 1
80454 1 5.13329 -0.601361 -3.45907 1 0 0
15643 1 6.44577 -1.10089 -3.57188 1 0 0
15644 1 6.8483 -0.985563 -3.33614 1 0 0
77236 1 8.82159 -0.899358 -3.53399 0 1 1
13019 1 -8.87561 0.17211 -3.49945 0 1 1
86450 1 -6.18616 -0.401731 -3.15437 0 1 0
86449 1 -5.7058 -0.326007 -3.0942 0 1 0
84935 1 -2.81583 -0.415283 -3.38985 1 1 1
92480 1 -1.85123 -0.369585 -3.35591 1 0 1
92479 1 -2.00513 0.0889855 -3.39203 1 0 1
84532 1 -0.946563 0.002539 -3.31251 1 1 1
8109 1 -0.0991953 0.157052 -3.19015 0 1 1
8110 1 0.047243 -0.317642 -3.14534 0 1 1
84563 1 1.10545 -0.13653 -3.24301 1 1 1
24834 1 2.42511 -0.32863 -3.29659 0 0 1
4231 1 3.32845 0.0833249 -3.2113 1 0 1
4285 1 4.30744 -0.252005 -3.3386 1 0 1
80453 1 5.58995 -0.437969 -3.34515 1 0 0
80452 1 6.04867 -0.308159 -3.19312 1 0 0
80451 1 6.50063 -0.126979 -3.10583 1 0 0
52678 1 8.04149 -0.349465 -3.14413 1 0 1
52679 1 8.06867 -0.189626 -3.61967 1 0 1
31788 1 8.96714 0.149494 -3.17639 0 1 0
13018 1 -8.39544 0.312927 -3.51729 0 1 1
13017 1 -7.90931 0.44794 -3.48209 0 1 1
13016 1 -7.67269 0.294723 -3.11353 0 1 1
21314 1 -6.6255 0.399551 -3.21378 1 0 0
21313 1 -6.47698 0.83953 -3.3711 1 0 0
92475 1 -3.37538 0.513356 -3.64474 1 0 1
92476 1 -2.92232 0.718112 -3.50618 1 0 1
92478 1 -2.07816 0.581076 -3.46774 1 0 1
92477 1 -2.45944 0.864788 -3.42856 1 0 1
84533 1 -0.820339 0.273553 -3.71199 1 1 1
8108 1 -0.188582 0.622633 -3.27142 0 1 1
84564 1 1.03625 0.263987 -3.51109 1 1 1
4230 1 3.4356 0.244584 -3.68499 1 0 1
44329 1 6.25014 0.740586 -3.16926 0 1 1
80447 1 8.07726 0.695843 -3.44515 1 0 0
39340 1 -8.78693 1.20648 -3.56458 0 0 0
39339 1 -8.40289 1.13951 -3.19697 0 0 0
21311 1 -6.90142 1.52471 -3.36153 1 0 0
21312 1 -6.44736 1.32079 -3.47267 1 0 0
21251 1 -5.42 0.996967 -3.69027 1 0 0
21250 1 -4.97031 0.953849 -3.48871 1 0 0
21249 1 -4.55675 0.94386 -3.26378 1 0 0
45334 1 -3.45042 1.48215 -3.62062 0 0 1
92413 1 -1.26612 0.882293 -3.20865 1 0 1
92412 1 -1.23127 1.19108 -3.59273 1 0 1
8107 1 -0.302433 1.1034 -3.31171 0 1 1
4177 1 0.682666 1.42501 -3.13192 1 0 1
47116 1 2.71578 0.952748 -3.6082 0 0 1
47115 1 3.0425 1.27791 -3.46337 0 0 1
4289 1 4.25392 1.21432 -3.17696 1 0 1
9191 1 5.18455 0.922072 -3.18846 0 0 1
9192 1 4.96562 1.08988 -3.6136 0 0 1
44330 1 6.4381 1.0981 -3.43077 0 1 1
44331 1 6.64621 1.47437 -3.71269 0 1 1
10058 1 7.44265 1.28451 -3.3359 0 0 1
10059 1 7.70111 1.50669 -3.71453 0 0 1
52658 1 8.59088 1.45322 -3.16986 1 0 1
21309 1 -7.79534 1.84655 -3.08114 1 0 0
21310 1 -7.32027 1.70331 -3.19935 1 0 0
43699 1 -5.33276 1.8126 -3.10869 1 0 1
43700 1 -5.14977 1.87099 -3.55286 1 0 1
8105 1 -0.573849 2.04537 -3.41313 0 1 1
8106 1 -0.387407 1.5856 -3.3769 0 1 1
4176 1 0.465432 1.61345 -3.56542 1 0 1
44309 1 1.50128 2.05956 -3.23711 0 1 1
44308 1 1.36395 1.69292 -3.55322 0 1 1
84605 1 2.26315 1.67851 -3.16369 1 1 1
84604 1 2.32348 1.89219 -3.65328 1 1 1
40130 1 3.30375 2.06364 -3.5557 0 0 0
40131 1 3.53542 2.09625 -3.09379 0 0 0
4290 1 4.3731 1.69245 -3.31236 1 0 1
52692 1 5.5005 1.82362 -3.25801 1 0 1
52691 1 5.60764 1.58505 -3.66837 1 0 1
84648 1 6.92342 2.12925 -3.14337 1 1 1
75361 1 8.07391 2.19254 -3.13929 0 0 1
52659 1 8.82347 1.67672 -3.56445 1 0 1
43707 1 -8.1169 2.82175 -3.33688 1 0 1
43706 1 -7.66648 2.65904 -3.40354 1 0 1
43705 1 -7.20388 2.51816 -3.50431 1 0 1
43704 1 -6.7274 2.39602 -3.61381 1 0 1
43703 1 -6.26843 2.29454 -3.72103 1 0 1
43794 1 -5.25135 2.74543 -3.30637 1 0 1
43793 1 -5.71556 2.8513 -3.20334 1 0 1
43795 1 -4.7983 2.65524 -3.47759 1 0 1
43796 1 -4.32296 2.55072 -3.61761 1 0 1
25037 1 -2.73465 2.669 -3.45358 0 0 1
25036 1 -3.18501 2.89051 -3.3601 0 0 1
25038 1 -2.27417 2.4814 -3.51203 0 0 1
25040 1 -1.46248 2.45904 -3.21782 0 0 1
25039 1 -1.8066 2.28117 -3.5191 0 0 1
84755 1 0.116258 2.64676 -3.41316 1 1 1
98340 1 2.42862 2.62237 -3.09727 0 0 0
98341 1 2.7483 2.83035 -3.41367 0 0 0
25181 1 4.00884 2.82999 -3.16894 0 0 1
52693 1 5.71608 2.25924 -3.16999 1 0 1
52694 1 5.93865 2.6737 -3.15647 1 0 1
52695 1 6.24791 2.88088 -3.46553 1 0 1
13303 1 7.33074 2.8499 -3.54086 0 1 1
75360 1 8.18943 2.34365 -3.55721 0 0 1
6346 1 8.89982 2.75734 -3.32471 0 1 0
43131 1 -8.98314 -9.02166 -2.95713 1 1 1
43130 1 -8.49694 -8.9386 -2.97816 1 1 1
43129 1 -8.01102 -8.87473 -3.06619 1 1 1
43128 1 -7.52443 -8.80241 -3.06695 1 1 1
43127 1 -6.99657 -8.67457 -3.06786 1 1 1
83805 1 -4.13264 -9.1985 -2.72487 1 0 1
83804 1 -3.66645 -9.06566 -2.63598 1 0 1
83803 1 -3.22824 -8.93153 -2.50768 1 0 1
76834 1 -2.11173 -8.63905 -2.80922 0 0 1
9610 1 -0.349212 -9.03284 -2.55532 0 0 1
9611 1 -0.0261424 -8.7356 -2.84024 0 0 1
53239 1 1.04643 -9.20282 -2.54706 1 0 1
13615 1 1.97008 -9.00417 -2.46327 0 1 1
4254 1 2.84834 -8.74589 -2.51174 1 0 1
4255 1 2.96196 -9.16971 -2.7298 1 0 1
94087 1 6.06875 -8.92272 -2.70451 0 0 1
44477 1 6.95396 -9.12212 -2.90624 0 1 1
77215 1 8.48249 -8.98287 -2.69838 0 1 1
43236 1 -1.36003 -8.17713 -2.41184 1 1 1
46462 1 1.09668 -8.12308 -2.56492 0 1 1
13616 1 2.00557 -8.50145 -2.51191 0 1 1
13617 1 1.96121 -8.01224 -2.6031 0 1 1
24813 1 5.0381 -8.45912 -2.53406 0 0 1
24814 1 5.11707 -7.9789 -2.7376 0 0 1
94086 1 6.07956 -8.43601 -2.81948 0 0 1
94085 1 6.13205 -7.96681 -2.95355 0 0 1
77140 1 7.64253 -8.61497 -2.43513 0 1 1
77139 1 7.67418 -8.14848 -2.63285 0 1 1
77216 1 8.51664 -8.47771 -2.82212 0 1 1
77217 1 8.53536 -8.01136 -2.92622 0 1 1
43220 1 -7.74989 -7.35365 -2.44752 1 1 1
46447 1 -3.57595 -7.93573 -2.44125 0 1 1
46448 1 -3.08092 -7.93766 -2.52271 0 1 1
46449 1 -2.59721 -7.90273 -2.63494 0 1 1
43234 1 -1.24378 -7.33733 -2.65838 1 1 1
43235 1 -1.08143 -7.76353 -2.50292 1 1 1
46461 1 1.10951 -7.87377 -2.99766 0 1 1
13618 1 1.88839 -7.52559 -2.76183 0 1 1
53207 1 4.18368 -7.61945 -2.52394 1 0 1
24815 1 5.15984 -7.49607 -2.86584 0 0 1
13278 1 6.80143 -7.6808 -2.43937 0 1 1
77138 1 7.67187 -7.67957 -2.78959 0 1 1
77218 1 8.62032 -7.5359 -3.06166 0 1 1
43221 1 -7.28405 -7.24807 -2.45813 1 1 1
43223 1 -6.31453 -7.09783 -2.43284 1 1 1
43224 1 -5.81689 -7.01901 -2.4476 1 1 1
43225 1 -5.32688 -6.96762 -2.40048 1 1 1
43226 1 -4.80488 -6.89862 -2.42813 1 1 1
43227 1 -4.32715 -6.82353 -2.5182 1 1 1
43228 1 -3.86668 -6.72389 -2.59328 1 1 1
43229 1 -3.39649 -6.6474 -2.61115 1 1 1
43230 1 -2.89328 -6.61344 -2.61448 1 1 1
43231 1 -2.38724 -6.65503 -2.66101 1 1 1
43232 1 -1.91959 -6.77919 -2.71909 1 1 1
43233 1 -1.44558 -6.91491 -2.82865 1 1 1
46457 1 -0.110141 -6.90261 -2.99366 0 1 1
46456 1 -0.2127 -6.8967 -2.50722 0 1 1
46475 1 0.702117 -6.6703 -2.56437 0 1 1
13619 1 1.77827 -7.05821 -2.90194 0 1 1
53231 1 3.17869 -7.26091 -2.48641 1 0 1
53230 1 3.3835 -6.79786 -2.60582 1 0 1
53208 1 4.2003 -7.17508 -2.69641 1 0 1
53209 1 4.25614 -6.75022 -2.87797 1 0 1
24816 1 5.22331 -7.05059 -3.04558 0 0 1
52862 1 5.90218 -6.76182 -2.46506 1 0 1
13279 1 6.80824 -7.23495 -2.6349 0 1 1
13280 1 6.8468 -6.76092 -2.76473 0 1 1
77137 1 7.67798 -7.23556 -2.98445 0 1 1
77164 1 8.43466 -6.70188 -2.44875 0 1 1
24708 1 -9.03876 -6.51813 -2.54627 0 0 1
24707 1 -8.56027 -6.44684 -2.57552 0 0 1
24706 1 -8.08717 -6.3989 -2.60052 0 0 1
24705 1 -7.5699 -6.35406 -2.59478 0 0 1
24704 1 -7.06913 -6.24936 -2.5657 0 0 1
24703 1 -6.56769 -6.1559 -2.53442 0 0 1
24702 1 -6.08475 -6.07129 -2.51829 0 0 1
24701 1 -5.61452 -5.95744 -2.56597 0 0 1
31477 1 -1.75031 -5.98978 -2.47092 1 1 0
46474 1 0.954851 -6.22674 -2.50521 0 1 1
53229 1 3.42486 -6.32304 -2.67361 1 0 1
53210 1 4.27463 -6.28807 -3.02589 1 0 1
9175 1 5.11765 -5.91878 -2.4011 0 0 1
52861 1 5.94104 -6.28986 -2.57424 1 0 1
13281 1 6.94281 -6.30418 -2.89782 0 1 1
77165 1 8.4242 -6.22978 -2.62617 0 1 1
24680 1 -9.23432 -5.57099 -2.65529 0 0 1
24681 1 -8.72066 -5.52605 -2.63945 0 0 1
24682 1 -8.23826 -5.42306 -2.69896 0 0 1
24683 1 -7.76162 -5.3589 -2.70711 0 0 1
24684 1 -7.28737 -5.26867 -2.64046 0 0 1
24685 1 -6.80778 -5.23036 -2.69967 0 0 1
24700 1 -5.13511 -5.89264 -2.61087 0 0 1
24699 1 -4.63531 -5.83252 -2.60627 0 0 1
24698 1 -4.14268 -5.78398 -2.55366 0 0 1
24697 1 -3.66329 -5.70944 -2.51309 0 0 1
24696 1 -3.18564 -5.599 -2.5302 0 0 1
24695 1 -2.76365 -5.39393 -2.59182 0 0 1
31478 1 -1.80903 -5.50837 -2.51599 1 1 0
92566 1 -0.70552 -5.67321 -3.065 1 0 1
92565 1 -0.251083 -5.82831 -2.89423 1 0 1
46473 1 1.23612 -5.8306 -2.41526 0 1 1
1361 1 2.53832 -5.80306 -2.64127 0 0 0
1360 1 2.46165 -5.44551 -2.97468 0 0 0
53228 1 3.45926 -5.86448 -2.82802 1 0 1
53227 1 3.41834 -5.38873 -2.91077 1 0 1
9176 1 5.15537 -5.49246 -2.61435 0 0 1
52860 1 5.95493 -5.80355 -2.70511 1 0 1
52859 1 6.01731 -5.3175 -2.81393 1 0 1
13282 1 6.98554 -5.8064 -3.04372 0 1 1
85097 1 7.6378 -5.75111 -2.4403 1 1 1
85098 1 7.67924 -5.29353 -2.66523 1 1 1
77166 1 8.49084 -5.7696 -2.84275 0 1 1
77167 1 8.57221 -5.32832 -3.00807 0 1 1
36689 1 -9.0773 -4.66886 -2.78662 1 1 0
36688 1 -8.58937 -4.55649 -2.77373 1 1 0
24686 1 -6.3253 -5.13403 -2.74452 0 0 1
24687 1 -5.85366 -5.01294 -2.78831 0 0 1
24688 1 -5.34692 -4.95332 -2.7919 0 0 1
24689 1 -4.87509 -4.87265 -2.72824 0 0 1
24690 1 -4.36288 -4.78076 -2.68523 0 0 1
24691 1 -3.88613 -4.6947 -2.68478 0 0 1
24692 1 -3.39877 -4.64259 -2.71579 0 0 1
24694 1 -2.7084 -4.89579 -2.49829 0 0 1
31479 1 -1.84075 -5.03383 -2.58615 1 1 0
31480 1 -1.44461 -4.74766 -2.71845 1 1 0
1230 1 -0.148285 -5.02402 -2.96364 0 0 0
1229 1 0.148905 -5.02973 -2.5835 0 0 0
1228 1 0.620446 -5.2255 -2.57565 0 0 0
4244 1 4.10004 -4.76254 -2.5248 1 0 1
9177 1 5.12257 -5.04297 -2.79912 0 0 1
9178 1 5.13264 -4.5548 -2.90648 0 0 1
52858 1 6.03428 -4.85249 -2.97543 1 0 1
85099 1 7.64483 -4.83451 -2.81826 1 1 1
36687 1 -8.11064 -4.48654 -2.71857 1 1 0
36686 1 -7.6055 -4.39071 -2.73262 1 1 0
36685 1 -7.08424 -4.34542 -2.71722 1 1 0
36684 1 -6.60311 -4.22293 -2.76195 1 1 0
36683 1 -6.12923 -4.15401 -2.8599 1 1 0
36682 1 -5.64329 -4.0527 -2.89656 1 1 0
36681 1 -5.148 -4.01903 -2.87926 1 1 0
36680 1 -4.63849 -3.97064 -2.88899 1 1 0
24693 1 -2.92701 -4.49853 -2.68911 0 0 1
13167 1 -1.80105 -3.93333 -2.40452 0 1 1
31481 1 -0.997208 -4.52175 -2.77613 1 1 0
31482 1 -0.571629 -4.28401 -2.81759 1 1 0
31483 1 -0.153931 -4.02621 -2.89508 1 1 0
34822 1 1.06342 -4.3259 -2.54363 0 1 0
34821 1 1.54151 -4.27322 -2.70605 0 1 0
34820 1 1.99993 -4.06569 -2.73731 0 1 0
4243 1 4.08429 -4.23898 -2.66457 1 0 1
9179 1 5.20583 -4.06092 -2.98996 0 0 1
52845 1 6.89328 -4.41439 -2.51425 1 0 1
52846 1 6.90808 -3.93977 -2.66723 1 0 1
85100 1 7.69439 -4.35734 -2.97308 1 1 1
36712 1 -9.02572 -3.64114 -2.8953 1 1 0
36713 1 -8.54457 -3.6286 -2.88578 1 1 0
36714 1 -8.06576 -3.55255 -2.88702 1 1 0
36715 1 -7.58228 -3.49022 -2.91999 1 1 0
36716 1 -7.07753 -3.34781 -2.88197 1 1 0
36717 1 -6.60189 -3.23114 -2.88208 1 1 0
36679 1 -4.16584 -3.84285 -2.88216 1 1 0
36678 1 -3.65269 -3.7568 -2.89096 1 1 0
36677 1 -3.17347 -3.63524 -2.93018 1 1 0
36676 1 -2.71175 -3.48706 -2.88744 1 1 0
36675 1 -2.2652 -3.32655 -2.80375 1 1 0
13166 1 -1.39164 -3.77757 -2.63949 0 1 1
13165 1 -1.02557 -3.57594 -2.9241 0 1 1
31484 1 0.278511 -3.79547 -2.98474 1 1 0
53308 1 3.13399 -3.7977 -2.57103 1 0 1
53307 1 3.0634 -3.37901 -2.82284 1 0 1
4241 1 4.00827 -3.32274 -2.95124 1 0 1
4242 1 4.04255 -3.77395 -2.83409 1 0 1
9181 1 5.67042 -3.27987 -2.87155 0 0 1
52847 1 6.85736 -3.466 -2.77994 1 0 1
77180 1 8.44431 -3.66686 -2.44432 0 1 1
84950 1 -9.02894 -2.76835 -3.05798 1 1 1
84949 1 -8.54727 -2.66273 -3.00478 1 1 1
84948 1 -8.09547 -2.59698 -2.97109 1 1 1
84947 1 -7.60558 -2.53138 -2.96714 1 1 1
36718 1 -6.08968 -3.17099 -2.84219 1 1 0
36719 1 -5.58894 -3.12268 -2.86608 1 1 0
36720 1 -5.10416 -3.09321 -2.92266 1 1 0
36721 1 -4.6089 -3.00525 -2.93285 1 1 0
36722 1 -4.1373 -2.86441 -2.9361 1 1 0
36723 1 -3.6409 -2.83061 -2.8902 1 1 0
36724 1 -3.14999 -2.75376 -2.78551 1 1 0
36674 1 -1.86268 -3.07788 -2.74357 1 1 0
36673 1 -1.45302 -2.83037 -2.69579 1 1 0
36672 1 -1.03764 -2.57936 -2.61941 1 1 0
36671 1 -0.627066 -2.77149 -2.50866 1 1 0
4208 1 0.323609 -2.66621 -2.95008 1 0 1
4207 1 0.38077 -2.99572 -2.59525 1 0 1
31488 1 2.00626 -3.10674 -3.06236 1 1 0
31489 1 2.07397 -3.05597 -2.53726 1 1 0
4240 1 3.84335 -2.94663 -2.65886 1 0 1
15632 1 4.78503 -2.9091 -2.99648 1 0 0
15631 1 4.87917 -2.99576 -2.49349 1 0 0
9182 1 5.75855 -2.7944 -2.96584 0 0 1
52848 1 6.84847 -3.01701 -2.97301 1 0 1
15649 1 7.52514 -2.58292 -2.50582 1 0 0
77179 1 8.48958 -3.16714 -2.59023 0 1 1
77178 1 8.60103 -2.70066 -2.72752 0 1 1
84946 1 -7.09168 -2.41843 -2.98408 1 1 1
84945 1 -6.60024 -2.28711 -2.97463 1 1 1
84944 1 -6.13746 -2.20814 -2.99118 1 1 1
84943 1 -5.63795 -2.10575 -2.93163 1 1 1
84942 1 -5.12618 -2.07884 -2.9228 1 1 1
84941 1 -4.62951 -2.08135 -2.86383 1 1 1
84940 1 -4.15925 -1.99269 -2.81557 1 1 1
84939 1 -3.65361 -1.8702 -2.72753 1 1 1
13231 1 -2.26056 -2.09652 -2.91016 0 1 1
13232 1 -2.23587 -2.33556 -2.43485 0 1 1
8114 1 0.751953 -2.04069 -2.49996 0 1 1
163 1 1.53862 -2.42862 -2.96592 1 1 1
162 1 1.93544 -2.15224 -2.91932 1 1 1
161 1 2.39887 -2.24598 -2.754 1 1 1
160 1 2.8435 -2.33052 -2.52152 1 1 1
80976 1 6.6038 -1.85053 -2.43949 1 0 0
15648 1 7.52958 -2.11114 -2.64406 1 0 0
77176 1 8.56192 -1.85929 -3.05333 0 1 1
77177 1 8.73252 -2.24867 -2.86011 0 1 1
86440 1 -8.84841 -1.27773 -2.40807 0 1 0
92427 1 -6.54093 -1.34667 -3.06563 1 0 1
92426 1 -6.03936 -1.2605 -2.97512 1 0 1
92425 1 -5.52659 -1.22042 -2.95002 1 0 1
92424 1 -5.05373 -1.19508 -2.9451 1 0 1
84938 1 -3.30205 -1.79302 -3.04963 1 1 1
36655 1 -1.64149 -1.37053 -2.55687 1 1 0
36656 1 -1.19489 -1.58021 -2.57259 1 1 0
36657 1 -0.74165 -1.78151 -2.48489 1 1 0
8113 1 0.524208 -1.65311 -2.7149 0 1 1
8112 1 0.342744 -1.21459 -2.91199 0 1 1
84544 1 2.56438 -1.31313 -3.05453 1 1 1
84545 1 3.03099 -1.52604 -2.89397 1 1 1
84546 1 3.46175 -1.71555 -2.80586 1 1 1
84547 1 3.67092 -1.31543 -2.57416 1 1 1
9185 1 5.82562 -1.42181 -2.92794 0 0 1
80977 1 6.68626 -1.38748 -2.62948 1 0 0
15647 1 7.56649 -1.64479 -2.77119 1 0 0
86441 1 -8.35226 -1.13825 -2.42575 0 1 0
86442 1 -7.86234 -1.02051 -2.4202 0 1 0
86443 1 -7.42282 -0.87 -2.39812 0 1 0
92423 1 -4.78098 -0.763845 -2.97874 1 0 1
84521 1 -3.66416 -0.791347 -2.80388 1 1 1
36654 1 -2.04354 -1.09408 -2.51616 1 1 0
36653 1 -2.43823 -0.796064 -2.52364 1 1 0
84530 1 -1.25351 -0.493456 -2.51586 1 1 1
8111 1 0.208496 -0.77834 -3.04149 0 1 1
84562 1 1.17726 -0.534224 -2.97247 1 1 1
84561 1 1.17217 -0.901665 -2.64918 1 1 1
80456 1 4.79817 -1.02469 -2.64832 1 0 0
80455 1 4.99065 -0.816815 -3.03591 1 0 0
9186 1 5.73472 -1.07052 -2.61179 0 0 1
15646 1 7.59605 -1.15428 -2.87234 1 0 0
15645 1 7.25906 -0.871335 -3.05156 1 0 0
77237 1 8.68578 -0.987646 -3.06152 0 1 1
77238 1 8.51018 -1.0428 -2.63976 0 1 1
13013 1 -8.47927 0.183639 -2.59068 0 1 1
13014 1 -8.02323 -0.00918465 -2.48973 0 1 1
13015 1 -7.60154 0.0874819 -2.68717 0 1 1
86448 1 -5.44368 -0.372171 -2.63936 0 1 0
92422 1 -4.49508 -0.363461 -2.94247 1 0 1
92421 1 -4.22501 0.0522799 -2.86519 1 0 1
92420 1 -3.74393 0.023986 -2.78219 1 0 1
92419 1 -3.26099 0.0313288 -2.70881 1 0 1
92418 1 -2.73814 0.0483698 -2.66259 1 0 1
92417 1 -2.24546 0.12596 -2.59423 1 0 1
84531 1 -1.09222 -0.283735 -2.9076 1 1 1
4180 1 0.585378 0.133268 -2.4314 1 0 1
84624 1 1.94947 -0.307496 -2.47272 1 1 1
24835 1 2.43021 0.0991551 -3.04036 0 0 1
4232 1 3.21138 -0.17873 -2.76721 1 0 1
4286 1 4.42605 -0.0771365 -2.88142 1 0 1
9188 1 5.54906 -0.222367 -2.49138 0 0 1
80450 1 6.9311 0.0512241 -3.03537 1 0 0
52677 1 7.9585 -0.410847 -2.66393 1 0 1
13012 1 -8.98865 0.257853 -2.60033 0 1 1
21315 1 -6.61363 0.279765 -2.71244 1 0 0
21316 1 -6.19188 0.242132 -2.41545 1 0 0
39295 1 -5.04919 0.620453 -2.55212 0 0 0
92416 1 -1.78171 0.273498 -2.50541 1 0 1
92414 1 -1.24873 0.638206 -2.76547 1 0 1
4179 1 0.632151 0.573247 -2.67714 1 0 1
24837 1 2.01295 0.649181 -2.87275 0 0 1
24836 1 2.46697 0.481825 -2.76625 0 0 1
4288 1 4.1217 0.74541 -3.05806 1 0 1
4287 1 4.45774 0.387042 -3.05068 1 0 1
9189 1 5.41424 0.233384 -2.62042 0 0 1
9190 1 5.30553 0.719847 -2.74379 0 0 1
44328 1 6.36362 0.621724 -2.71054 0 1 1
80449 1 7.38336 0.288834 -3.03267 1 0 0
80448 1 7.81886 0.524495 -3.03529 1 0 0
31787 1 8.74295 0.470474 -2.92563 0 1 0
31786 1 8.50099 0.816427 -2.66739 0 1 0
39337 1 -9.16347 1.24455 -2.74104 0 0 0
39338 1 -8.68934 1.12591 -2.78456 0 0 0
39299 1 -6.828 1.30554 -2.42683 0 0 0
39298 1 -6.34533 1.176 -2.49913 0 0 0
39297 1 -5.83653 1.04969 -2.58635 0 0 0
39296 1 -5.35535 0.949404 -2.74079 0 0 0
24904 1 -4.62209 1.36759 -2.41332 0 0 1
21248 1 -4.1181 0.929434 -3.04708 1 0 0
21247 1 -3.63269 0.976976 -2.84715 1 0 0
21246 1 -3.1944 1.02072 -2.64014 1 0 0
21245 1 -2.74643 1.05411 -2.40915 1 0 0
24844 1 -0.942149 1.54257 -2.55925 0 0 1
4178 1 0.643924 1.0053 -2.93004 1 0 1
24839 1 1.36749 1.17763 -2.60043 0 0 1
24838 1 1.6197 0.916725 -2.96535 0 0 1
84606 1 2.26361 1.47093 -2.70149 1 1 1
47114 1 3.26293 1.24211 -3.02754 0 0 1
47113 1 3.45127 1.22236 -2.56371 0 0 1
10057 1 7.20604 1.13051 -2.93284 0 0 1
10056 1 7.30959 1.29197 -2.46962 0 0 1
21306 1 -9.25352 2.12623 -2.92286 1 0 0
21307 1 -8.75195 2.08405 -3.0195 1 0 0
21308 1 -8.27418 1.99012 -3.04592 1 0 0
43696 1 -6.70078 2.19769 -2.69172 1 0 1
43697 1 -6.21947 2.08431 -2.79098 1 0 1
43698 1 -5.75663 1.95311 -2.9414 1 0 1
24850 1 -3.7537 2.11223 -2.95647 0 0 1
24849 1 -3.29808 1.93915 -2.9537 0 0 1
24848 1 -2.8225 1.80469 -2.90409 0 0 1
24847 1 -2.35211 1.6718 -2.89711 0 0 1
24846 1 -1.85815 1.58957 -2.85719 0 0 1
24845 1 -1.38413 1.57691 -2.72936 0 0 1
24843 1 -0.45343 1.58065 -2.44341 0 0 1
44310 1 1.62286 2.08326 -2.7781 0 1 1
128 1 2.83436 2.12386 -2.41109 1 1 1
40132 1 3.75434 2.09514 -2.65047 0 0 0
4291 1 4.62122 2.07602 -3.05742 1 0 1
84646 1 6.2539 1.5777 -2.62221 1 1 1
84647 1 6.57283 1.86202 -2.87515 1 1 1
75362 1 7.93382 2.06262 -2.68296 0 0 1
52657 1 8.56156 1.61744 -2.69737 1 0 1
43693 1 -8.11088 2.61002 -2.4045 1 0 1
43694 1 -7.6393 2.51304 -2.4782 1 0 1
43695 1 -7.17028 2.36467 -2.60504 1 0 1
24853 1 -5.10619 2.51935 -2.45922 0 0 1
24852 1 -4.66086 2.39518 -2.63676 0 0 1
24851 1 -4.22112 2.26122 -2.8096 0 0 1
24912 1 -2.65255 2.61519 -2.5801 0 0 1
24913 1 -3.12773 2.69185 -2.41142 0 0 1
24911 1 -2.17514 2.6258 -2.67007 0 0 1
25041 1 -1.11362 2.68211 -2.93865 0 0 1
8069 1 0.624092 2.32128 -2.76546 0 1 1
8068 1 0.197835 2.41573 -2.51013 0 1 1
8070 1 0.924923 2.63454 -2.98411 0 1 1
98339 1 2.11428 2.87591 -2.76237 0 0 0
4292 1 4.84319 2.50956 -2.86092 1 0 1
84649 1 7.09276 2.40817 -2.76705 1 1 1
36845 1 -7.96316 -9.14696 -2.19773 1 1 0
36844 1 -8.46898 -9.22115 -2.14832 1 1 0
36846 1 -7.48588 -9.05445 -2.28066 1 1 0
36847 1 -7.01024 -8.94978 -2.30601 1 1 0
36848 1 -6.5159 -8.8941 -2.266 1 1 0
36849 1 -5.98214 -8.90373 -2.24244 1 1 0
36850 1 -5.49797 -8.80122 -2.16622 1 1 0
79766 1 -4.68227 -9.18469 -1.84023 1 0 0
79765 1 -4.24134 -8.95312 -1.81086 1 0 0
79764 1 -3.83119 -8.66328 -1.76116 1 0 0
76835 1 -2.24915 -8.87466 -2.39455 0 0 1
76836 1 -2.37543 -9.02429 -1.92308 0 0 1
41991 1 0.263852 -9.10768 -2.00159 0 1 1
53238 1 1.24075 -9.07497 -2.10295 1 0 1
49034 1 2.34064 -9.28899 -1.78511 0 0 0
53204 1 3.96173 -9.00096 -1.94928 1 0 1
24812 1 4.90947 -8.89071 -2.32751 0 0 1
52866 1 5.80813 -8.65863 -1.81024 1 0 1